Program Version,EnergyPlus, Version 9.3.0-baff08990c, YMD=2023.10.04 22:54
1,5,Environment Title[],Latitude[deg],Longitude[deg],Time Zone[],Elevation[m]
2,8,Day of Simulation[],Month[],Day of Month[],DST Indicator[1=yes 0=no],Hour[],StartMinute[],EndMinute[],DayType
3,5,Cumulative Day of Simulation[],Month[],Day of Month[],DST Indicator[1=yes 0=no],DayType  ! When Daily Report Variables Requested
4,2,Cumulative Days of Simulation[],Month[]  ! When Monthly Report Variables Requested
5,1,Cumulative Days of Simulation[] ! When Run Period Report Variables Requested
6,1,Calendar Year of Simulation[] ! When Annual Report Variables Requested
7,1,Environment,Site Outdoor Air Drybulb Temperature [C] !TimeStep
8,1,Environment,Site Outdoor Air Dewpoint Temperature [C] !TimeStep
9,1,Environment,Site Outdoor Air Humidity Ratio [kgWater/kgDryAir] !TimeStep
10,1,Environment,Site Outdoor Air Relative Humidity [%] !TimeStep
11,1,PERIMETER_ZN_1,People Occupant Count [] !TimeStep
300,1,EMS,PerimeterZN1_Q_Sen [W] !TimeStep
301,1,EMS,PerimeterZN1_Q_Lat [W] !TimeStep
302,1,PERIMETER_ZN_1_WALL_WEST,Surface Inside Face Temperature [C] !TimeStep
303,1,PERIMETER_ZN_1_WALL_SOUTH,Surface Inside Face Temperature [C] !TimeStep
304,1,PERIMETER_ZN_1_WALL_SOUTH_WINDOW_1,Surface Inside Face Temperature [C] !TimeStep
305,1,PERIMETER_ZN_1_WALL_SOUTH_WINDOW_2,Surface Inside Face Temperature [C] !TimeStep
306,1,PERIMETER_ZN_1_WALL_SOUTH_WINDOW_3,Surface Inside Face Temperature [C] !TimeStep
307,1,PERIMETER_ZN_1_WALL_SOUTH_WINDOW_4,Surface Inside Face Temperature [C] !TimeStep
308,1,PERIMETER_ZN_1_WALL_SOUTH_WINDOW_5,Surface Inside Face Temperature [C] !TimeStep
309,1,PERIMETER_ZN_1_WALL_SOUTH_WINDOW_6,Surface Inside Face Temperature [C] !TimeStep
310,1,PERIMETER_ZN_1_WALL_EAST,Surface Inside Face Temperature [C] !TimeStep
311,1,PERIMETER_ZN_1_WALL_NORTH,Surface Inside Face Temperature [C] !TimeStep
312,1,PERIMETER_ZN_1_FLOOR,Surface Inside Face Temperature [C] !TimeStep
313,1,PERIMETER_ZN_1_CEILING,Surface Inside Face Temperature [C] !TimeStep
314,1,PERIMETER_ZN_1,Zone Mean Radiant Temperature [C] !TimeStep
315,1,PERIMETER_ZN_1,Zone Mean Air Dewpoint Temperature [C] !TimeStep
464,1,PERIMETER_ZN_1,Zone Air Temperature [C] !TimeStep
465,1,PERIMETER_ZN_1,Zone Air Humidity Ratio [] !TimeStep
466,1,PERIMETER_ZN_1,Zone Air Relative Humidity [%] !TimeStep
467,1,PERIMETER_ZN_1,Zone Thermostat Heating Setpoint Temperature [C] !TimeStep
468,1,PERIMETER_ZN_1,Zone Thermostat Cooling Setpoint Temperature [C] !TimeStep
507,1,PERIMETER_ZN_2,Zone Thermostat Heating Setpoint Temperature [C] !TimeStep
508,1,PERIMETER_ZN_2,Zone Thermostat Cooling Setpoint Temperature [C] !TimeStep
770,1,FMU_PERIMETER_ZN_1_PH,Schedule Value [] !TimeStep
771,1,FMU_PERIMETER_ZN_1_PF,Schedule Value [] !TimeStep
906,1,PERIMETER_ZN_1 NODE1,System Node Temperature [C] !TimeStep
907,1,PERIMETER_ZN_1 NODE1,System Node Mass Flow Rate [kg/s] !TimeStep
908,1,PERIMETER_ZN_1 NODE1,System Node Humidity Ratio [kgWater/kgDryAir] !TimeStep
End of Data Dictionary
1,RUNPERIOD 1,  33.63, -84.43,  -5.00, 308.00
2,1, 8,25, 1, 1, 0.00, 1.00,Tuesday
7,23.863333333333335
8,15.055
9,0.011225994778431573
10,58.38333333333333
11,0.0
300,0.0
301,0.0
302,28.640651806163267
303,29.419945909104727
304,25.400572113264276
305,25.40073277223746
306,25.400732772238145
307,25.400732772237804
308,25.400732772237235
309,25.40057212161298
310,28.615852171063425
311,28.64321076732788
312,29.925918499174786
313,29.46783456928582
314,29.447541167154829
315,25.962986718638417
770,0.0
771,0.0
464,29.97245550066204
465,0.02217050155232722
466,79.15830513649253
467,21.0
468,26.7
507,20.0
508,25.56
906,29.97480143501736
907,0.0
908,0.022189881320813275
2,1, 8,25, 1, 1, 1.00, 2.00,Tuesday
7,23.826666666666666
8,15.11
9,0.011275696698465956
10,58.76666666666667
11,0.0
300,0.0
301,0.0
302,28.638179025213654
303,29.41585101411909
304,25.382624827348537
305,25.382785182880299
306,25.382785182879503
307,25.382785182880185
308,25.38278518287939
309,25.382624835680816
310,28.61345402835726
311,28.640986474445599
312,29.924561908602418
313,29.46460460492731
314,29.444396919776787
315,25.948794755134665
770,0.0
771,0.0
464,29.970083171392884
465,0.02215122580215383
466,79.10262505342998
467,21.0
468,26.7
507,20.0
508,25.56
906,29.97245550066204
907,0.0
908,0.02217050155232722
2,1, 8,25, 1, 1, 2.00, 3.00,Tuesday
7,23.79
8,15.165
9,0.011325125474402173
10,59.14999999999999
11,0.0
300,0.0
301,0.0
302,28.635700301844698
303,29.411763079454148
304,25.364679519250104
305,25.364839572594634
306,25.3648395725952
307,25.36483957259543
308,25.36483957259503
309,25.364679527567206
310,28.611049429739827
311,28.638752666446466
312,29.92320518556408
313,29.461373643449574
314,29.44125145342304
315,25.93468339075487
770,0.0
771,0.0
464,29.96768369688313
465,0.022132073819658997
466,79.04747260304223
467,21.0
468,26.7
507,20.0
508,25.56
906,29.970083171392884
907,0.0
908,0.02215122580215383
2,1, 8,25, 1, 1, 3.00, 4.00,Tuesday
7,23.75333333333333
8,15.22
9,0.011374280530275654
10,59.53333333333333
11,0.0
300,0.0
301,0.0
302,28.633217025862764
303,29.407682497395525
304,25.346723865395007
305,25.346883617898187
306,25.346883617897903
307,25.34688361789688
308,25.346883617898017
309,25.34672387369494
310,28.60863978928616
311,28.63651165107243
312,29.92184835099971
313,29.458143181047466
314,29.43810516644616
315,25.92065360578508
770,0.0
771,0.0
464,29.965257346592055
465,0.022113047273947436
466,78.99285354253159
467,21.0
468,26.7
507,20.0
508,25.56
906,29.96768369688313
907,0.0
908,0.022132073819658997
2,1, 8,25, 1, 1, 4.00, 5.00,Tuesday
7,23.716666666666666
8,15.275
9,0.011423163268151488
10,59.916666666666667
11,0.0
300,0.0
301,0.0
302,28.630729813519016
303,29.403609426950735
304,25.328757499574409
305,25.328916952557394
306,25.32891695255745
307,25.328916952556825
308,25.32891695255779
309,25.32875750786104
310,28.60622575231015
311,28.6342647944749
312,29.92049142575121
313,29.454914006844644
314,29.434958419796254
315,25.906703283778155
770,0.0
771,0.0
464,29.962804617963927
465,0.02209414325140099
466,78.93875782601389
467,21.0
468,26.7
507,20.0
508,25.56
906,29.965257346592055
907,0.0
908,0.022113047273947436
2,1, 8,25, 1, 1, 5.00, 6.00,Tuesday
7,23.68
8,15.33
9,0.011471774430821964
10,60.300000000000007
11,0.0
300,0.0
301,0.0
302,28.6282345207571
303,29.399539315144449
304,25.310780480545874
305,25.31093963529986
306,25.310939635300316
307,25.310939635300714
308,25.310939635299407
309,25.310780488814318
310,28.60380320091329
311,28.632008174057014
312,29.919123489974909
313,29.451682147550984
314,29.431802107080963
315,25.892831072215356
770,0.0
771,0.0
464,29.96032592303401
465,0.022075359212749235
466,78.8851723755007
467,21.0
468,26.7
507,20.0
508,25.56
906,29.962804617963927
907,0.0
908,0.02209414325140099
2,1, 8,25, 1, 1, 6.00, 7.00,Tuesday
7,23.64333333333333
8,15.385
9,0.011520114760340797
10,60.68333333333334
11,0.0
300,0.0
301,0.0
302,28.625738072061229
303,29.39547945126312
304,25.29278894000555
305,25.292947797809519
306,25.292947797811054
307,25.292947797811224
308,25.292947797811168
309,25.292788948261206
310,28.601379085058544
311,28.629749868975386
312,29.9177575539568
313,29.448454670482375
314,29.42865206059585
315,25.87903484984336
770,0.0
771,0.0
464,29.957821637244018
465,0.022056693692429166
466,78.83209214432648
467,21.0
468,26.7
507,20.0
508,25.56
906,29.96032592303401
907,0.0
908,0.022075359212749235
2,1, 8,25, 1, 1, 7.00, 8.00,Tuesday
7,23.606666666666667
8,15.44
9,0.01156818567509103
10,61.06666666666666
11,0.0
300,0.0
301,0.0
302,28.62323743794961
303,29.391426138438825
304,25.274790288596024
305,25.274948850693819
306,25.274948850694103
307,25.27494885069393
308,25.274948850694388
309,25.274790296835478
310,28.598950394405447
311,28.627487443986906
312,29.916391070270014
313,29.445227979217508
314,29.42549526802157
315,25.865315489598655
770,0.0
771,0.0
464,29.955292090763359
465,0.02203814584239663
466,78.779509903045
467,21.0
468,26.7
507,20.0
508,25.56
906,29.957821637244018
907,0.0
908,0.022056693692429166
2,1, 8,25, 1, 1, 8.00, 9.00,Tuesday
7,23.569999999999998
8,15.495000000000001
9,0.011615986564532983
10,61.449999999999999
11,0.0
300,0.0
301,0.0
302,28.62073296449329
303,29.387379806168018
304,25.256777826554584
305,25.25693609417067
306,25.256936094170159
307,25.256936094170955
308,25.25693609416919
309,25.256777834778405
310,28.596517492340703
311,28.62522138301246
312,29.915024523964925
313,29.4420025385793
314,29.422338181799334
315,25.85167255404141
770,0.0
771,0.0
464,29.952737595341615
465,0.022019715012480097
466,78.727427740866
467,21.0
468,26.7
507,20.0
508,25.56
906,29.955292090763359
907,0.0
908,0.02203814584239663
2,1, 8,25, 1, 1, 9.00,10.00,Tuesday
7,23.533333333333336
8,15.55
9,0.011663518842496033
10,61.833333333333339
11,0.0
300,0.0
301,0.0
302,28.618224463445306
303,29.383340089708115
304,25.238755365913279
305,25.238913340252794
306,25.238913340251544
307,25.23891334025211
308,25.23891334025211
309,25.23875537412181
310,28.594080204727889
311,28.622951686765597
312,29.913649623648973
313,29.43877799303645
314,29.419178944019177
315,25.838105037128764
770,0.0
771,0.0
464,29.950158463543173
465,0.022001400568238937
466,78.67583486569323
467,21.0
468,26.7
507,20.0
508,25.56
906,29.952737595341615
907,0.0
908,0.022019715012480097
2,1, 8,25, 1, 1,10.00,11.00,Tuesday
7,23.496666666666664
8,15.605
9,0.011710783248034493
10,62.21666666666667
11,0.0
300,0.0
301,0.0
302,28.61571201102456
303,29.3793069135622
304,25.220722301937714
305,25.22087998418067
306,25.220879984180728
307,25.220879984180387
308,25.220879984180387
309,25.220722310132204
310,28.591638618667387
311,28.6206786640454
312,29.912274666526334
313,29.435554255214734
314,29.416019308948415
315,25.824613328221778
770,0.0
771,0.0
464,29.947555011214527
465,0.021983201850715386
466,78.62473334245526
467,21.0
468,26.7
507,20.0
508,25.56
906,29.950158463543173
907,0.0
908,0.022001400568238937
2,1, 8,25, 1, 1,11.00,12.00,Tuesday
7,23.46
8,15.66
9,0.011757780519440917
10,62.60000000000001
11,0.0
300,0.0
301,0.0
302,28.613195605252647
303,29.37528006343854
304,25.202679365609585
305,25.202836756912519
306,25.202836756912576
307,25.202836756912406
308,25.202836756912406
309,25.202679373788216
310,28.589192740581877
311,28.61840247460257
312,29.910899648905468
313,29.432331079404034
314,29.412859234093497
315,25.811195976782753
770,0.0
771,0.0
464,29.944927554668227
465,0.021965118183953359
466,78.57411656126804
467,21.0
468,26.7
507,20.0
508,25.56
906,29.947555011214527
907,0.0
908,0.021983201850715386
2,1, 8,25, 1, 1,12.00,13.00,Tuesday
7,23.423333333333333
8,15.715
9,0.011804512086372024
10,62.983333333333337
11,0.0
300,0.0
301,0.0
302,28.610675237465196
303,29.37125929160271
304,25.18462665103175
305,25.184783752532668
306,25.184783752532554
307,25.184783752532554
308,25.184783752532554
309,25.18462665919344
310,28.58674256855482
311,28.616123229072753
312,29.90952457175069
313,29.42910817983166
314,29.409698645524626
315,25.797854264847545
770,0.0
771,0.0
464,29.942276406591259
465,0.02194714888778063
466,78.52398221052684
467,21.0
468,26.7
507,20.0
508,25.56
906,29.944927554668227
907,0.0
908,0.021965118183953359
2,1, 8,25, 1, 1,13.00,14.00,Tuesday
7,23.386666666666664
8,15.77
9,0.011850977304292614
10,63.36666666666666
11,0.0
300,0.0
301,0.0
302,28.608150130446494
303,29.36724344460103
304,25.16656425805968
305,25.16672107087976
306,25.166721070880386
307,25.166721070880045
308,25.166721070880045
309,25.166564266209379
310,28.58428733114028
311,28.6138403667684
312,29.908141375824007
313,29.4258843440316
314,29.406531655995538
315,25.784586863755345
770,0.0
771,0.0
464,29.939601850339117
465,0.021929293282544838
466,78.47432798172788
467,21.0
468,26.7
507,20.0
508,25.56
906,29.942276406591259
907,0.0
908,0.02194714888778063
2,1, 8,25, 1, 1,14.00,15.00,Tuesday
7,23.349999999999999
8,15.825
9,0.011897177598328375
10,63.75
11,0.0
300,0.0
301,0.0
302,28.60562073629709
303,29.363232808310856
304,25.148489569655056
305,25.148646094898028
306,25.1486460948978
307,25.148646094898369
308,25.148646094898426
309,25.148489577789236
310,28.58182748535162
311,28.611554308477634
312,29.906758119523574
313,29.42265984473502
314,29.403363795853744
315,25.771394754820429
770,0.0
771,0.0
464,29.936904161577723
465,0.021911550691824649
466,78.42514298787808
467,21.0
468,26.7
507,20.0
508,25.56
906,29.939601850339117
907,0.0
908,0.021929293282544838
2,1, 8,25, 1, 1,15.00,16.00,Tuesday
7,23.313333333333334
8,15.879999999999999
9,0.01194311370367895
10,64.13333333333334
11,0.0
300,0.0
301,0.0
302,28.603087136726747
303,29.359227152151815
304,25.130405410317509
305,25.130561649071525
306,25.13056164907084
307,25.130561649070957
308,25.13056164907124
309,25.130405418435545
310,28.579363117013665
311,28.609265159054379
312,29.905374798897335
313,29.41943444082217
314,29.400195033574567
315,25.75827527832492
770,0.0
771,0.0
464,29.9341836217734
465,0.021893920442613708
466,78.37643354725776
467,21.0
468,26.7
507,20.0
508,25.56
906,29.936904161577723
907,0.0
908,0.021911550691824649
2,1, 8,25, 1, 1,16.00,17.00,Tuesday
7,23.276666666666669
8,15.935
9,0.011988787058687587
10,64.51666666666667
11,0.0
300,0.0
301,0.0
302,28.600549370721607
303,29.35522619646447
304,25.112311796875475
305,25.11246775020379
306,25.112467750203338
307,25.112467750202087
308,25.112467750202826
309,25.112311804979755
310,28.576894268368564
311,28.60697297090568
312,29.90399141517649
313,29.416207851148344
314,29.397025288392489
315,25.745230176586508
770,0.0
771,0.0
464,29.93144051406291
465,0.02187640186562757
466,78.32818881018501
467,21.0
468,26.7
507,20.0
508,25.56
906,29.9341836217734
907,0.0
908,0.021893920442613708
2,1, 8,25, 1, 1,17.00,18.00,Tuesday
7,23.239999999999996
8,15.99
9,0.012034196992038333
10,64.89999999999999
11,0.0
300,0.0
301,0.0
302,28.59800730064914
303,29.351229449213009
304,25.094208820737266
305,25.094364489686087
306,25.09436448968546
307,25.09436448968711
308,25.09436448968603
309,25.094208828827904
310,28.574420804342656
311,28.604677558193424
312,29.902600241807194
313,29.412979589436003
314,29.393852740227645
315,25.73225729747714
770,0.0
771,0.0
464,29.92867511412231
465,0.021858994293398473
466,78.28041081814719
467,21.0
468,26.7
507,20.0
508,25.56
906,29.93144051406291
907,0.0
908,0.02187640186562757
2,1, 8,25, 1, 1,18.00,19.00,Tuesday
7,23.203333333333334
8,16.045
9,0.012079344937562582
10,65.28333333333333
11,0.0
300,0.0
301,0.0
302,28.595461037626099
303,29.347236707126485
304,25.076095992434717
305,25.076251378037285
306,25.076251378036547
307,25.076251378036717
308,25.076251378037683
309,25.07609600050887
310,28.57194283805493
311,28.602379057019385
312,29.901209009604018
313,29.40974948007744
314,29.390678977208773
315,25.719357901067544
770,0.0
771,0.0
464,29.925887691316956
465,0.02184169706106312
466,78.23309304193738
467,21.0
468,26.7
507,20.0
508,25.56
906,29.92867511412231
907,0.0
908,0.021858994293398473
2,1, 8,25, 1, 1,19.00,20.00,Tuesday
7,23.166666666666666
8,16.1
9,0.012124231627294273
10,65.66666666666667
11,0.0
300,0.0
301,0.0
302,28.59291013916303
303,29.34324710886782
304,25.05797396528942
305,25.058129068558175
306,25.05812906855897
307,25.058129068559766
308,25.05812906855914
309,25.057973973347715
310,28.56945992844552
311,28.600077159309035
312,29.899817485780724
313,29.406516685587584
314,29.387500734786835
315,25.706531541605103
770,0.0
771,0.0
464,29.923078495044128
465,0.02182450950652023
466,78.18623325569621
467,21.0
468,26.7
507,20.0
508,25.56
906,29.925887691316956
907,0.0
908,0.02184169706106312
2,1, 8,25, 1, 1,20.00,21.00,Tuesday
7,23.13
8,16.155
9,0.012168857792465174
10,66.05
11,0.0
300,0.0
301,0.0
302,28.59035491565469
303,29.339260681852989
304,25.039841132507264
305,25.039995954448956
306,25.039995954448615
307,25.039995954449638
308,25.03999595444884
309,25.039841140552313
310,28.56697238614646
311,28.5977720586196
312,29.898425898639738
313,29.403281290511655
314,29.384321007984089
315,25.69377677732016
770,0.0
771,0.0
464,29.920247768617917
465,0.021807430970382927
466,78.13982496346658
467,21.0
468,26.7
507,20.0
508,25.56
906,29.923078495044128
907,0.0
908,0.02182450950652023
2,1, 8,25, 1, 1,21.00,22.00,Tuesday
7,23.09333333333333
8,16.21
9,0.012213224881866988
10,66.43333333333334
11,0.0
300,0.0
301,0.0
302,28.58779528090502
303,29.33527694862951
304,25.021699265726455
305,25.021853807326637
306,25.02185380732601
307,25.021853807325614
308,25.021853807325785
309,25.02169927375712
310,28.564480125924836
311,28.595463571720506
312,29.89702656728877
313,29.400042874152019
314,29.381138015326056
315,25.681094595391874
770,0.0
771,0.0
464,29.917395753422406
465,0.02179046079661693
466,78.09386596942795
467,21.0
468,26.7
507,20.0
508,25.56
906,29.920247768617917
907,0.0
908,0.021807430970382927
2,1, 8,25, 1, 1,22.00,23.00,Tuesday
7,23.056666666666666
8,16.265
9,0.012257332191225913
10,66.81666666666666
11,0.0
300,0.0
301,0.0
302,28.585231370478103
303,29.33129571034521
304,25.00354782071662
305,25.003702082942824
306,25.003702082943165
307,25.00370208294453
308,25.00370208294322
309,25.00354782873336
310,28.561983289163437
311,28.59315182621172
312,29.89562717952882
313,29.396801310414117
314,29.37795334653019
315,25.668483475328136
770,0.0
771,0.0
464,29.91452268934802
465,0.021773598330846659
466,78.04835835976533
467,21.0
468,26.7
507,20.0
508,25.56
906,29.917395753422406
907,0.0
908,0.02179046079661693
2,1, 8,25, 1, 1,23.00,24.00,Tuesday
7,23.019999999999997
8,16.32
9,0.012301181164846792
10,67.19999999999999
11,0.0
300,0.0
301,0.0
302,28.58266322750626
303,29.327316655992385
304,24.985387444667027
305,24.985541428475359
306,24.9855414284757
307,24.98554142847655
308,24.985541428475814
309,24.98538745266933
310,28.559481929688059
311,28.59083683904648
312,29.894227735066438
313,29.393556367004508
314,29.374766938085839
315,25.655943007147994
770,0.0
771,0.0
464,29.911628813533065
465,0.021756842921258819
466,78.00329140121176
467,21.0
468,26.7
507,20.0
508,25.56
906,29.91452268934802
907,0.0
908,0.021773598330846659
2,1, 8,25, 1, 1,24.00,25.00,Tuesday
7,22.98333333333333
8,16.375
9,0.012344772530708213
10,67.58333333333333
11,0.0
300,0.0
301,0.0
302,28.580090872380084
303,29.32333946148628
304,24.967218198508705
305,24.96737190484106
306,24.96737190484123
307,24.967371904841117
308,24.967371904841458
309,24.96721820649725
310,28.556976079782094
311,28.58851860673586
312,29.89282823818411
313,29.390307804770275
314,29.37157870724935
315,25.64347477506356
770,0.0
771,0.0
464,29.90871435792479
465,0.021740193918780995
466,77.95866720210802
467,21.0
468,26.7
507,20.0
508,25.56
906,29.911628813533065
907,0.0
908,0.021756842921258819
2,1, 8,25, 1, 1,25.00,26.00,Tuesday
7,22.946666666666667
8,16.43
9,0.01238810701596456
10,67.96666666666667
11,0.0
300,0.0
301,0.0
302,28.57751371546362
303,29.31936311365214
304,24.949040153392845
305,24.949193583174407
306,24.949193583174407
307,24.949193583174464
308,24.949193583173839
309,24.94904016136661
310,28.554465160087199
311,28.586196599108758
312,29.891420799051315
313,29.387054682821764
314,29.368383921505605
315,25.631076131992683
770,0.0
771,0.0
464,29.905779530137648
465,0.021723650677026863
466,77.91448360282584
467,21.0
468,26.7
507,20.0
508,25.56
906,29.90871435792479
907,0.0
908,0.021740193918780995
2,1, 8,25, 1, 1,26.00,27.00,Tuesday
7,22.91
8,16.485
9,0.012431186079408496
10,68.35000000000001
11,0.0
300,0.0
301,0.0
302,28.574932111961
303,29.31538773229464
304,24.93085127586062
305,24.931004430008956
306,24.93100443000924
307,24.931004430009467
308,24.93100443000924
309,24.930851283818755
310,28.55194953336595
311,28.58387109676047
312,29.890013316566149
313,29.383797227988535
314,29.36518700120704
315,25.618748112993147
770,0.0
771,0.0
464,29.902824529690095
465,0.02170721255293979
466,77.87072992355935
467,21.0
468,26.7
507,20.0
508,25.56
906,29.905779530137648
907,0.0
908,0.021723650677026863
2,1, 8,25, 1, 1,27.00,28.00,Tuesday
7,22.873333333333336
8,16.54
9,0.012474008984381259
10,68.73333333333334
11,0.0
300,0.0
301,0.0
302,28.572346123483368
303,29.31141305154345
304,24.912653756233909
305,24.912806635652488
306,24.91280663565317
307,24.91280663565334
308,24.912806635653284
309,24.91265376417772
310,28.549429266156879
311,28.581542136128247
312,29.888605794796474
313,29.38053527883515
314,29.36198791547774
315,25.60649082385863
770,0.0
771,0.0
464,29.899849557865435
465,0.021690878905063047
466,77.82741256458538
467,21.0
468,26.7
507,20.0
508,25.56
906,29.902824529690095
907,0.0
908,0.02170721255293979
2,1, 8,25, 1, 1,28.00,29.00,Tuesday
7,22.836666666666667
8,16.595
9,0.01251657718521404
10,69.11666666666666
11,0.0
300,0.0
301,0.0
302,28.569755773885153
303,29.30743878113072
304,24.894447600161244
305,24.894600205738699
306,24.894600205737846
307,24.894600205738415
308,24.89460020573881
309,24.8944476080909
310,28.546904385044056
311,28.579209720918873
312,29.887198243597326
313,29.377268650082294
314,29.358786597253226
315,25.594302065805889
770,0.0
771,0.0
464,29.896854814158666
465,0.02167464909446028
466,77.78452087059739
467,21.0
468,26.7
507,20.0
508,25.56
906,29.899849557865435
907,0.0
908,0.021690878905063047
2,1, 8,25, 1, 1,29.00,30.00,Tuesday
7,22.799999999999998
8,16.65
9,0.012558891405724124
10,69.5
11,0.0
300,0.0
301,0.0
302,28.56716091061131
303,29.30346443729197
304,24.87623287704116
305,24.87638520965089
306,24.876385209651404
307,24.876385209651177
308,24.876385209652143
309,24.876232884955927
310,28.544374738659014
311,28.57687362935003
312,29.885782946502965
313,29.373996959904337
314,29.355581245634338
315,25.582182619140395
770,0.0
771,0.0
464,29.89384048836708
465,0.021658522484897935
466,77.74205699242623
467,21.0
468,26.7
507,20.0
508,25.56
906,29.896854814158666
907,0.0
908,0.02167464909446028
2,1, 8,25, 1, 1,30.00,31.00,Tuesday
7,22.763333333333333
8,16.705000000000003
9,0.012600953112386446
10,69.88333333333333
11,0.0
300,0.0
301,0.0
302,28.564561628380895
303,29.299489840323607
304,24.85800907899369
305,24.85816113950375
306,24.858161139503978
307,24.858161139503694
308,24.858161139502955
309,24.85800908689589
310,28.541840421944717
311,28.574533971116595
312,29.88436764729682
313,29.370720141870569
314,29.352373472091636
315,25.570132278025377
770,0.0
771,0.0
464,29.890806760926279
465,0.02164249844351543
466,77.7000145696632
467,21.0
468,26.7
507,20.0
508,25.56
906,29.89384048836708
907,0.0
908,0.021658522484897935
2,1, 8,25, 1, 1,31.00,32.00,Tuesday
7,22.726666666666668
8,16.759999999999999
9,0.012642761543045864
10,70.26666666666667
11,0.0
300,0.0
301,0.0
302,28.561957495448249
303,29.295514199140916
304,24.839776839958746
305,24.839928629218208
306,24.839928629219174
307,24.839928629219118
308,24.83992862921866
309,24.839776847844747
310,28.53930100294365
311,28.572190439834747
312,29.882952146705639
313,29.36743750483604
314,29.349160235671915
315,25.55815052910208
770,0.0
771,0.0
464,29.88775378836158
465,0.021626576339038165
466,77.65839151164433
467,21.0
468,26.7
507,20.0
508,25.56
906,29.890806760926279
907,0.0
908,0.02164249844351543
2,1, 8,25, 1, 1,32.00,33.00,Tuesday
7,22.689999999999999
8,16.815
9,0.012684318159737304
10,70.65
11,0.0
300,0.0
301,0.0
302,28.559348782376188
303,29.291537566075307
304,24.821534640690858
305,24.821686159547313
306,24.8216861595472
307,24.821686159547313
308,24.82168615954714
309,24.821534648565377
310,28.53675675174376
311,28.569843204272023
312,29.88153668406546
313,29.364149223236465
314,29.345944371901003
315,25.546237947339966
770,0.0
771,0.0
464,29.884681713601933
465,0.021610755542688946
466,77.61718573669137
467,21.0
468,26.7
507,20.0
508,25.56
906,29.88775378836158
907,0.0
908,0.021626576339038165
2,1, 8,25, 1, 1,33.00,34.00,Tuesday
7,22.65333333333333
8,16.87
9,0.012725623682875453
10,71.03333333333333
11,0.0
300,0.0
301,0.0
302,28.55673537514806
303,29.287559516519076
304,24.80328412903441
305,24.803435378316409
306,24.80343537831584
307,24.803435378316409
308,24.803435378316637
309,24.803284136893127
310,28.53420755361825
311,28.567492070233365
312,29.880113608194745
313,29.360854985475929
314,29.342724129290258
315,25.534392050176029
770,0.0
771,0.0
464,29.881590664809985
465,0.021595035428364587
466,77.57639942345824
467,21.0
468,26.7
507,20.0
508,25.56
906,29.884681713601933
907,0.0
908,0.021610755542688946
2,1, 8,25, 1, 1,34.00,35.00,Tuesday
7,22.616666666666668
8,16.925
9,0.012766678832014525
10,71.41666666666666
11,0.0
300,0.0
301,0.0
302,28.554117392380058
303,29.283579920782743
304,24.785024741201484
305,24.785175721728537
306,24.78517572172916
307,24.78517572173007
308,24.785175721728593
309,24.7850247490461
310,28.53165352610516
311,28.565137168014183
312,29.87869098987249
313,29.357554783113096
314,29.339501208466979
315,25.522614763332319
770,0.0
771,0.0
464,29.878480743307116
465,0.021579415372578609
466,77.5360220056355
467,21.0
468,26.7
507,20.0
508,25.56
906,29.881590664809985
907,0.0
908,0.021595035428364587
2,1, 8,25, 1, 1,35.00,36.00,Tuesday
7,22.58
8,16.98
9,0.012807485082841719
10,71.80000000000001
11,0.0
300,0.0
301,0.0
302,28.551494857067224
303,29.279598531922738
304,24.76675712630913
305,24.76690783889137
306,24.766907838891485
307,24.76690783889171
308,24.76690783889194
309,24.766757134140449
310,28.52909469093846
311,28.56277850789389
312,29.877268658660094
313,29.354248488794466
314,29.33627553518666
315,25.510903722905348
770,0.0
771,0.0
464,29.875352080953033
465,0.02156389475512607
466,77.49605143854562
467,21.0
468,26.7
507,20.0
508,25.56
906,29.878480743307116
907,0.0
908,0.021579415372578609
2,1, 8,25, 1, 1,36.00,37.00,Tuesday
7,22.543333333333334
8,17.035
9,0.012848041641842776
10,72.18333333333334
11,0.0
300,0.0
301,0.0
302,28.548867759709965
303,29.275615077129595
304,24.748481310414605
305,24.748631755849034
306,24.748631755848977
307,24.748631755849148
308,24.748631755848238
309,24.748481318232053
310,28.526531038569343
311,28.560416061630766
312,29.87584580407398
313,29.350935948683245
314,29.333046871141588
315,25.499260948592555
770,0.0
771,0.0
464,29.872205232450168
465,0.02154847295728551
466,77.4564899272843
467,21.0
468,26.7
507,20.0
508,25.56
906,29.875352080953033
907,0.0
908,0.02156389475512607
2,1, 8,25, 1, 1,37.00,38.00,Tuesday
7,22.506666666666669
8,17.09
9,0.012888349980291947
10,72.56666666666666
11,0.0
300,0.0
301,0.0
302,28.546235442032335
303,29.27162855375009
304,24.73019735373481
305,24.730347532807288
306,24.730347532807003
307,24.730347532807629
308,24.730347532806719
309,24.730197361538445
310,28.52396192036113
311,28.558049247923166
312,29.87441334056971
313,29.34761626076767
314,29.329810002025054
315,25.487683536841567
770,0.0
771,0.0
464,29.869040695635964
465,0.021533149362764946
466,77.41732695005868
467,21.0
468,26.7
507,20.0
508,25.56
906,29.872205232450168
907,0.0
908,0.02154847295728551
2,1, 8,25, 1, 1,38.00,39.00,Tuesday
7,22.47
8,17.145000000000004
9,0.012928410814262378
10,72.94999999999999
11,0.0
300,0.0
301,0.0
302,28.54359828191346
303,29.267639206398074
304,24.711903056667326
305,24.712052970162064
306,24.712052970161836
307,24.71205297016138
308,24.71205297016195
309,24.71190306445726
310,28.521387733421297
311,28.55567838459772
312,29.872979806401948
313,29.344289803715506
314,29.32656977667687
315,25.47617320212871
770,0.0
771,0.0
464,29.86585885825578
465,0.021517923357892329
466,77.37856473184304
467,21.0
468,26.7
507,20.0
508,25.56
906,29.869040695635964
907,0.0
908,0.021533149362764946
2,1, 8,25, 1, 1,39.00,40.00,Tuesday
7,22.43333333333333
8,17.2
9,0.012968224858947431
10,73.33333333333334
11,0.0
300,0.0
301,0.0
302,28.5409563550821
303,29.26364686935081
304,24.693600825638954
305,24.693750474322657
306,24.69375047432311
307,24.69375047432311
308,24.693750474322998
309,24.693600833414963
310,28.518808566501876
311,28.553303535526447
312,29.871545432604536
313,29.340956538882339
314,29.323326261262225
315,25.464728982559376
770,0.0
771,0.0
464,29.862660043309256
465,0.021502794331562097
466,77.34019278330737
467,21.0
468,26.7
507,20.0
508,25.56
906,29.86585885825578
907,0.0
908,0.021517923357892329
2,1, 8,25, 1, 1,40.00,41.00,Tuesday
7,22.396666666666666
8,17.255000000000004
9,0.013007793598817899
10,73.71666666666667
11,0.0
300,0.0
301,0.0
302,28.538309708748728
303,29.25965135014006
304,24.675290693962098
305,24.675440078594307
306,24.67544007859317
307,24.675440078593227
308,24.675440078594023
309,24.67529070172634
310,28.51622446905786
311,28.550924729829985
312,29.870110333041045
313,29.337616397601079
314,29.320079455218747
315,25.45334970426254
770,0.0
771,0.0
464,29.859444542636284
465,0.021487761675914479
466,77.30221335162654
467,21.0
468,26.7
507,20.0
508,25.56
906,29.862660043309256
907,0.0
908,0.021502794331562097
2,1, 8,25, 1, 1,41.00,42.00,Tuesday
7,22.36
8,17.310000000000004
9,0.013047116209567398
10,74.1
11,0.0
300,0.0
301,0.0
302,28.535658196060333
303,29.25565223386279
304,24.656972756351366
305,24.657121877676447
306,24.65712187767639
307,24.65712187767633
308,24.657121877675765
309,24.656972764101228
310,28.513635289641696
311,28.548541738618085
312,29.8686656954938
313,29.334269081700528
314,29.316827354537524
315,25.442035609078969
770,0.0
771,0.0
464,29.856212626469483
465,0.021472824784520479
466,77.26461597756779
467,21.0
468,26.7
507,20.0
508,25.56
906,29.859444542636284
907,0.0
908,0.021487761675914479
2,1, 8,25, 1, 1,42.00,43.00,Tuesday
7,22.32333333333333
8,17.365000000000003
9,0.013086194171282213
10,74.48333333333334
11,0.0
300,0.0
301,0.0
302,28.533001958326005
303,29.25164945439533
304,24.638646441141874
305,24.638795299900609
306,24.638795299900836
307,24.63879529990072
308,24.638795299901518
309,24.638646448877354
310,28.511041162160656
311,28.54615471495912
312,29.867220454476155
313,29.330914651690624
314,29.31357187155275
315,25.43078724849102
770,0.0
771,0.0
464,29.85296455314095
465,0.021457983053351075
466,77.2274071558262
467,21.0
468,26.7
507,20.0
508,25.56
906,29.856212626469483
907,0.0
908,0.021472824784520479
2,1, 8,25, 1, 1,43.00,44.00,Tuesday